HEADER
"PSFversion" "1.00"
"design" "(\"EE_140_240A_Final_Project\" \"EE_140_240A_Sp25_System\" \"schematic\" \"\")"
"simulator" "spectre"
"temperature" "37.0"
"host" ""
"date" "May  9 13:43:24 2025"
"title" ""
"analysisList" "()"
END
