HEADER
"PSFversion" "1.00"
"NM1n" "sky130_fd_pr_main_nfet_01v8_spectre"
"NM5n NM3n NM2n NM0n" "sky130_fd_pr_main_nfet_g5v0d10v5_spectre"
"PM3n PM2n PM1n PM0n" "sky130_fd_pr_main_pfet_g5v0d10v5_spectre"
"R0n" "analogLib_res_spectre"
"VDDv" ":1v"
"VSSv" ":2v"
"Vin+v" ":3v"
"Vin-v" ":4v"
"Voutv" ":5v"
