HEADER
"PSFversion" "1.00"
"NM14n NM5n NM0n NM3n NM4n NM7n NM2n NM1n" "sky130_fd_pr_main_nfet_g5v0d10v5_spectre"
"PM9n PM1n PM0n PM10n PM8n PM7n PM2n PM3n PM4n PM5n" "sky130_fd_pr_main_pfet_g5v0d10v5_spectre"
"R15n R0n R8n R9n R3n R5n R1n R2n R4n" "analogLib_res_spectre"
"I5n I4n" "_sub1"
"C3n" "analogLib_cap_spectre"
"V1n" "analogLib_vpulse_spectre"
"V0n" "analogLib_vdc_spectre"
