HEADER
"PSFversion" "1.00"
"simulator" "spectre"
"version" "21.1.0.751.isr19"
"date" "2:59:30 AM, Wed May 7, 2025"
"design" "// Generated for: spectre"
"analysis type" "info"
"analysis name" "designParamVals"
"analysis description" "Circuit Information"
"xVecSorted" "unknown"
"tolerance.relative" 0.000100000
TYPE
"top-level" STRUCT(
"temp" FLOAT DOUBLE
"tnom" FLOAT DOUBLE
"temper" FLOAT DOUBLE
"time" FLOAT DOUBLE
"TRISE_BAT" FLOAT DOUBLE
"VBAT" FLOAT DOUBLE
"sky130_fd_pr__nfet_01v8__toxe_mult" FLOAT DOUBLE
"sky130_fd_pr__nfet_01v8__rshn_mult" FLOAT DOUBLE
"sky130_fd_pr__nfet_01v8__overlap_mult" FLOAT DOUBLE
"sky130_fd_pr__nfet_01v8__lint_diff" FLOAT DOUBLE
"sky130_fd_pr__nfet_01v8__wint_diff" FLOAT DOUBLE
"sky130_fd_pr__nfet_01v8__dlc_diff" FLOAT DOUBLE
"sky130_fd_pr__nfet_01v8__dwc_diff" FLOAT DOUBLE
"sky130_fd_pr__nfet_01v8__voff_diff_0" FLOAT DOUBLE
"sky130_fd_pr__nfet_01v8__kt1_diff_0" FLOAT DOUBLE
"sky130_fd_pr__nfet_01v8__ub_diff_0" FLOAT DOUBLE
"sky130_fd_pr__nfet_01v8__pditsd_diff_0" FLOAT DOUBLE
"sky130_fd_pr__nfet_01v8__ua_diff_0" FLOAT DOUBLE
"sky130_fd_pr__nfet_01v8__vsat_diff_0" FLOAT DOUBLE
"sky130_fd_pr__nfet_01v8__tvoff_diff_0" FLOAT DOUBLE
"sky130_fd_pr__nfet_01v8__ags_diff_0" FLOAT DOUBLE
"sky130_fd_pr__nfet_01v8__a0_diff_0" FLOAT DOUBLE
"sky130_fd_pr__nfet_01v8__b0_diff_0" FLOAT DOUBLE
"sky130_fd_pr__nfet_01v8__pclm_diff_0" FLOAT DOUBLE
"sky130_fd_pr__nfet_01v8__pdits_diff_0" FLOAT DOUBLE
"sky130_fd_pr__nfet_01v8__keta_diff_0" FLOAT DOUBLE
"sky130_fd_pr__nfet_01v8__rdsw_diff_0" FLOAT DOUBLE
"sky130_fd_pr__nfet_01v8__k2_diff_0" FLOAT DOUBLE
"sky130_fd_pr__nfet_01v8__vth0_diff_0" FLOAT DOUBLE
"sky130_fd_pr__nfet_01v8__nfactor_diff_0" FLOAT DOUBLE
"sky130_fd_pr__nfet_01v8__u0_diff_0" FLOAT DOUBLE
"sky130_fd_pr__nfet_01v8__eta0_diff_0" FLOAT DOUBLE
"sky130_fd_pr__nfet_01v8__b1_diff_0" FLOAT DOUBLE
"sky130_fd_pr__nfet_01v8__eta0_diff_1" FLOAT DOUBLE
"sky130_fd_pr__nfet_01v8__b1_diff_1" FLOAT DOUBLE
"sky130_fd_pr__nfet_01v8__voff_diff_1" FLOAT DOUBLE
"sky130_fd_pr__nfet_01v8__kt1_diff_1" FLOAT DOUBLE
"sky130_fd_pr__nfet_01v8__ub_diff_1" FLOAT DOUBLE
"sky130_fd_pr__nfet_01v8__pditsd_diff_1" FLOAT DOUBLE
"sky130_fd_pr__nfet_01v8__ua_diff_1" FLOAT DOUBLE
"sky130_fd_pr__nfet_01v8__vsat_diff_1" FLOAT DOUBLE
"sky130_fd_pr__nfet_01v8__tvoff_diff_1" FLOAT DOUBLE
"sky130_fd_pr__nfet_01v8__ags_diff_1" FLOAT DOUBLE
"sky130_fd_pr__nfet_01v8__a0_diff_1" FLOAT DOUBLE
"sky130_fd_pr__nfet_01v8__b0_diff_1" FLOAT DOUBLE
"sky130_fd_pr__nfet_01v8__pclm_diff_1" FLOAT DOUBLE
"sky130_fd_pr__nfet_01v8__pdits_diff_1" FLOAT DOUBLE
"sky130_fd_pr__nfet_01v8__keta_diff_1" FLOAT DOUBLE
"sky130_fd_pr__nfet_01v8__rdsw_diff_1" FLOAT DOUBLE
"sky130_fd_pr__nfet_01v8__k2_diff_1" FLOAT DOUBLE
"sky130_fd_pr__nfet_01v8__vth0_diff_1" FLOAT DOUBLE
"sky130_fd_pr__nfet_01v8__nfactor_diff_1" FLOAT DOUBLE
"sky130_fd_pr__nfet_01v8__u0_diff_1" FLOAT DOUBLE
"sky130_fd_pr__nfet_01v8__nfactor_diff_2" FLOAT DOUBLE
"sky130_fd_pr__nfet_01v8__u0_diff_2" FLOAT DOUBLE
"sky130_fd_pr__nfet_01v8__vth0_diff_2" FLOAT DOUBLE
"sky130_fd_pr__nfet_01v8__eta0_diff_2" FLOAT DOUBLE
"sky130_fd_pr__nfet_01v8__b1_diff_2" FLOAT DOUBLE
"sky130_fd_pr__nfet_01v8__voff_diff_2" FLOAT DOUBLE
"sky130_fd_pr__nfet_01v8__ub_diff_2" FLOAT DOUBLE
"sky130_fd_pr__nfet_01v8__kt1_diff_2" FLOAT DOUBLE
"sky130_fd_pr__nfet_01v8__pditsd_diff_2" FLOAT DOUBLE
"sky130_fd_pr__nfet_01v8__ua_diff_2" FLOAT DOUBLE
"sky130_fd_pr__nfet_01v8__vsat_diff_2" FLOAT DOUBLE
"sky130_fd_pr__nfet_01v8__tvoff_diff_2" FLOAT DOUBLE
"sky130_fd_pr__nfet_01v8__ags_diff_2" FLOAT DOUBLE
"sky130_fd_pr__nfet_01v8__a0_diff_2" FLOAT DOUBLE
"sky130_fd_pr__nfet_01v8__b0_diff_2" FLOAT DOUBLE
"sky130_fd_pr__nfet_01v8__pclm_diff_2" FLOAT DOUBLE
"sky130_fd_pr__nfet_01v8__pdits_diff_2" FLOAT DOUBLE
"sky130_fd_pr__nfet_01v8__keta_diff_2" FLOAT DOUBLE
"sky130_fd_pr__nfet_01v8__rdsw_diff_2" FLOAT DOUBLE
"sky130_fd_pr__nfet_01v8__k2_diff_2" FLOAT DOUBLE
"sky130_fd_pr__nfet_01v8__keta_diff_3" FLOAT DOUBLE
"sky130_fd_pr__nfet_01v8__k2_diff_3" FLOAT DOUBLE
"sky130_fd_pr__nfet_01v8__nfactor_diff_3" FLOAT DOUBLE
"sky130_fd_pr__nfet_01v8__u0_diff_3" FLOAT DOUBLE
"sky130_fd_pr__nfet_01v8__vth0_diff_3" FLOAT DOUBLE
"sky130_fd_pr__nfet_01v8__eta0_diff_3" FLOAT DOUBLE
"sky130_fd_pr__nfet_01v8__b1_diff_3" FLOAT DOUBLE
"sky130_fd_pr__nfet_01v8__voff_diff_3" FLOAT DOUBLE
"sky130_fd_pr__nfet_01v8__ub_diff_3" FLOAT DOUBLE
"sky130_fd_pr__nfet_01v8__kt1_diff_3" FLOAT DOUBLE
"sky130_fd_pr__nfet_01v8__pditsd_diff_3" FLOAT DOUBLE
"sky130_fd_pr__nfet_01v8__ua_diff_3" FLOAT DOUBLE
"sky130_fd_pr__nfet_01v8__vsat_diff_3" FLOAT DOUBLE
"sky130_fd_pr__nfet_01v8__tvoff_diff_3" FLOAT DOUBLE
"sky130_fd_pr__nfet_01v8__ags_diff_3" FLOAT DOUBLE
"sky130_fd_pr__nfet_01v8__a0_diff_3" FLOAT DOUBLE
"sky130_fd_pr__nfet_01v8__b0_diff_3" FLOAT DOUBLE
"sky130_fd_pr__nfet_01v8__pclm_diff_3" FLOAT DOUBLE
"sky130_fd_pr__nfet_01v8__pdits_diff_3" FLOAT DOUBLE
"sky130_fd_pr__nfet_01v8__rdsw_diff_3" FLOAT DOUBLE
"sky130_fd_pr__nfet_01v8__pdits_diff_4" FLOAT DOUBLE
"sky130_fd_pr__nfet_01v8__rdsw_diff_4" FLOAT DOUBLE
"sky130_fd_pr__nfet_01v8__keta_diff_4" FLOAT DOUBLE
"sky130_fd_pr__nfet_01v8__k2_diff_4" FLOAT DOUBLE
"sky130_fd_pr__nfet_01v8__nfactor_diff_4" FLOAT DOUBLE
"sky130_fd_pr__nfet_01v8__u0_diff_4" FLOAT DOUBLE
"sky130_fd_pr__nfet_01v8__vth0_diff_4" FLOAT DOUBLE
"sky130_fd_pr__nfet_01v8__eta0_diff_4" FLOAT DOUBLE
"sky130_fd_pr__nfet_01v8__b1_diff_4" FLOAT DOUBLE
"sky130_fd_pr__nfet_01v8__voff_diff_4" FLOAT DOUBLE
"sky130_fd_pr__nfet_01v8__ub_diff_4" FLOAT DOUBLE
"sky130_fd_pr__nfet_01v8__kt1_diff_4" FLOAT DOUBLE
"sky130_fd_pr__nfet_01v8__pditsd_diff_4" FLOAT DOUBLE
"sky130_fd_pr__nfet_01v8__ua_diff_4" FLOAT DOUBLE
"sky130_fd_pr__nfet_01v8__vsat_diff_4" FLOAT DOUBLE
"sky130_fd_pr__nfet_01v8__tvoff_diff_4" FLOAT DOUBLE
"sky130_fd_pr__nfet_01v8__ags_diff_4" FLOAT DOUBLE
"sky130_fd_pr__nfet_01v8__a0_diff_4" FLOAT DOUBLE
"sky130_fd_pr__nfet_01v8__b0_diff_4" FLOAT DOUBLE
"sky130_fd_pr__nfet_01v8__pclm_diff_4" FLOAT DOUBLE
"sky130_fd_pr__nfet_01v8__pdits_diff_5" FLOAT DOUBLE
"sky130_fd_pr__nfet_01v8__rdsw_diff_5" FLOAT DOUBLE
"sky130_fd_pr__nfet_01v8__keta_diff_5" FLOAT DOUBLE
"sky130_fd_pr__nfet_01v8__k2_diff_5" FLOAT DOUBLE
"sky130_fd_pr__nfet_01v8__nfactor_diff_5" FLOAT DOUBLE
"sky130_fd_pr__nfet_01v8__u0_diff_5" FLOAT DOUBLE
"sky130_fd_pr__nfet_01v8__vth0_diff_5" FLOAT DOUBLE
"sky130_fd_pr__nfet_01v8__eta0_diff_5" FLOAT DOUBLE
"sky130_fd_pr__nfet_01v8__b1_diff_5" FLOAT DOUBLE
"sky130_fd_pr__nfet_01v8__voff_diff_5" FLOAT DOUBLE
"sky130_fd_pr__nfet_01v8__ub_diff_5" FLOAT DOUBLE
"sky130_fd_pr__nfet_01v8__kt1_diff_5" FLOAT DOUBLE
"sky130_fd_pr__nfet_01v8__pditsd_diff_5" FLOAT DOUBLE
"sky130_fd_pr__nfet_01v8__ua_diff_5" FLOAT DOUBLE
"sky130_fd_pr__nfet_01v8__vsat_diff_5" FLOAT DOUBLE
"sky130_fd_pr__nfet_01v8__tvoff_diff_5" FLOAT DOUBLE
"sky130_fd_pr__nfet_01v8__ags_diff_5" FLOAT DOUBLE
"sky130_fd_pr__nfet_01v8__a0_diff_5" FLOAT DOUBLE
"sky130_fd_pr__nfet_01v8__b0_diff_5" FLOAT DOUBLE
"sky130_fd_pr__nfet_01v8__pclm_diff_5" FLOAT DOUBLE
"sky130_fd_pr__nfet_01v8__pclm_diff_6" FLOAT DOUBLE
"sky130_fd_pr__nfet_01v8__pdits_diff_6" FLOAT DOUBLE
"sky130_fd_pr__nfet_01v8__rdsw_diff_6" FLOAT DOUBLE
"sky130_fd_pr__nfet_01v8__keta_diff_6" FLOAT DOUBLE
"sky130_fd_pr__nfet_01v8__k2_diff_6" FLOAT DOUBLE
"sky130_fd_pr__nfet_01v8__nfactor_diff_6" FLOAT DOUBLE
"sky130_fd_pr__nfet_01v8__u0_diff_6" FLOAT DOUBLE
"sky130_fd_pr__nfet_01v8__vth0_diff_6" FLOAT DOUBLE
"sky130_fd_pr__nfet_01v8__eta0_diff_6" FLOAT DOUBLE
"sky130_fd_pr__nfet_01v8__b1_diff_6" FLOAT DOUBLE
"sky130_fd_pr__nfet_01v8__voff_diff_6" FLOAT DOUBLE
"sky130_fd_pr__nfet_01v8__ub_diff_6" FLOAT DOUBLE
"sky130_fd_pr__nfet_01v8__kt1_diff_6" FLOAT DOUBLE
"sky130_fd_pr__nfet_01v8__pditsd_diff_6" FLOAT DOUBLE
"sky130_fd_pr__nfet_01v8__ua_diff_6" FLOAT DOUBLE
"sky130_fd_pr__nfet_01v8__vsat_diff_6" FLOAT DOUBLE
"sky130_fd_pr__nfet_01v8__tvoff_diff_6" FLOAT DOUBLE
"sky130_fd_pr__nfet_01v8__ags_diff_6" FLOAT DOUBLE
"sky130_fd_pr__nfet_01v8__a0_diff_6" FLOAT DOUBLE
"sky130_fd_pr__nfet_01v8__b0_diff_6" FLOAT DOUBLE
"sky130_fd_pr__nfet_01v8__tvoff_diff_7" FLOAT DOUBLE
"sky130_fd_pr__nfet_01v8__b0_diff_7" FLOAT DOUBLE
"sky130_fd_pr__nfet_01v8__ags_diff_7" FLOAT DOUBLE
"sky130_fd_pr__nfet_01v8__pclm_diff_7" FLOAT DOUBLE
"sky130_fd_pr__nfet_01v8__pdits_diff_7" FLOAT DOUBLE
"sky130_fd_pr__nfet_01v8__rdsw_diff_7" FLOAT DOUBLE
"sky130_fd_pr__nfet_01v8__keta_diff_7" FLOAT DOUBLE
"sky130_fd_pr__nfet_01v8__k2_diff_7" FLOAT DOUBLE
"sky130_fd_pr__nfet_01v8__nfactor_diff_7" FLOAT DOUBLE
"sky130_fd_pr__nfet_01v8__u0_diff_7" FLOAT DOUBLE
"sky130_fd_pr__nfet_01v8__vth0_diff_7" FLOAT DOUBLE
"sky130_fd_pr__nfet_01v8__eta0_diff_7" FLOAT DOUBLE
"sky130_fd_pr__nfet_01v8__b1_diff_7" FLOAT DOUBLE
"sky130_fd_pr__nfet_01v8__voff_diff_7" FLOAT DOUBLE
"sky130_fd_pr__nfet_01v8__ub_diff_7" FLOAT DOUBLE
"sky130_fd_pr__nfet_01v8__kt1_diff_7" FLOAT DOUBLE
"sky130_fd_pr__nfet_01v8__pditsd_diff_7" FLOAT DOUBLE
"sky130_fd_pr__nfet_01v8__ua_diff_7" FLOAT DOUBLE
"sky130_fd_pr__nfet_01v8__vsat_diff_7" FLOAT DOUBLE
"sky130_fd_pr__nfet_01v8__a0_diff_7" FLOAT DOUBLE
"sky130_fd_pr__nfet_01v8__a0_diff_8" FLOAT DOUBLE
"sky130_fd_pr__nfet_01v8__ua_diff_8" FLOAT DOUBLE
"sky130_fd_pr__nfet_01v8__tvoff_diff_8" FLOAT DOUBLE
"sky130_fd_pr__nfet_01v8__b0_diff_8" FLOAT DOUBLE
"sky130_fd_pr__nfet_01v8__ags_diff_8" FLOAT DOUBLE
"sky130_fd_pr__nfet_01v8__pclm_diff_8" FLOAT DOUBLE
"sky130_fd_pr__nfet_01v8__pdits_diff_8" FLOAT DOUBLE
"sky130_fd_pr__nfet_01v8__rdsw_diff_8" FLOAT DOUBLE
"sky130_fd_pr__nfet_01v8__keta_diff_8" FLOAT DOUBLE
"sky130_fd_pr__nfet_01v8__k2_diff_8" FLOAT DOUBLE
"sky130_fd_pr__nfet_01v8__nfactor_diff_8" FLOAT DOUBLE
"sky130_fd_pr__nfet_01v8__u0_diff_8" FLOAT DOUBLE
"sky130_fd_pr__nfet_01v8__vth0_diff_8" FLOAT DOUBLE
"sky130_fd_pr__nfet_01v8__eta0_diff_8" FLOAT DOUBLE
"sky130_fd_pr__nfet_01v8__b1_diff_8" FLOAT DOUBLE
"sky130_fd_pr__nfet_01v8__voff_diff_8" FLOAT DOUBLE
"sky130_fd_pr__nfet_01v8__ub_diff_8" FLOAT DOUBLE
"sky130_fd_pr__nfet_01v8__kt1_diff_8" FLOAT DOUBLE
"sky130_fd_pr__nfet_01v8__pditsd_diff_8" FLOAT DOUBLE
"sky130_fd_pr__nfet_01v8__vsat_diff_8" FLOAT DOUBLE
"sky130_fd_pr__nfet_01v8__kt1_diff_9" FLOAT DOUBLE
"sky130_fd_pr__nfet_01v8__pditsd_diff_9" FLOAT DOUBLE
"sky130_fd_pr__nfet_01v8__ub_diff_9" FLOAT DOUBLE
"sky130_fd_pr__nfet_01v8__vsat_diff_9" FLOAT DOUBLE
"sky130_fd_pr__nfet_01v8__a0_diff_9" FLOAT DOUBLE
"sky130_fd_pr__nfet_01v8__ua_diff_9" FLOAT DOUBLE
"sky130_fd_pr__nfet_01v8__tvoff_diff_9" FLOAT DOUBLE
"sky130_fd_pr__nfet_01v8__b0_diff_9" FLOAT DOUBLE
"sky130_fd_pr__nfet_01v8__ags_diff_9" FLOAT DOUBLE
"sky130_fd_pr__nfet_01v8__pclm_diff_9" FLOAT DOUBLE
"sky130_fd_pr__nfet_01v8__pdits_diff_9" FLOAT DOUBLE
"sky130_fd_pr__nfet_01v8__rdsw_diff_9" FLOAT DOUBLE
"sky130_fd_pr__nfet_01v8__keta_diff_9" FLOAT DOUBLE
"sky130_fd_pr__nfet_01v8__k2_diff_9" FLOAT DOUBLE
"sky130_fd_pr__nfet_01v8__nfactor_diff_9" FLOAT DOUBLE
"sky130_fd_pr__nfet_01v8__u0_diff_9" FLOAT DOUBLE
"sky130_fd_pr__nfet_01v8__vth0_diff_9" FLOAT DOUBLE
"sky130_fd_pr__nfet_01v8__eta0_diff_9" FLOAT DOUBLE
"sky130_fd_pr__nfet_01v8__b1_diff_9" FLOAT DOUBLE
"sky130_fd_pr__nfet_01v8__voff_diff_9" FLOAT DOUBLE
"sky130_fd_pr__nfet_01v8__ags_diff_10" FLOAT DOUBLE
"sky130_fd_pr__nfet_01v8__keta_diff_10" FLOAT DOUBLE
"sky130_fd_pr__nfet_01v8__k2_diff_10" FLOAT DOUBLE
"sky130_fd_pr__nfet_01v8__ua_diff_10" FLOAT DOUBLE
"sky130_fd_pr__nfet_01v8__eta0_diff_10" FLOAT DOUBLE
"sky130_fd_pr__nfet_01v8__ub_diff_10" FLOAT DOUBLE
"sky130_fd_pr__nfet_01v8__tvoff_diff_10" FLOAT DOUBLE
"sky130_fd_pr__nfet_01v8__a0_diff_10" FLOAT DOUBLE
"sky130_fd_pr__nfet_01v8__rdsw_diff_10" FLOAT DOUBLE
"sky130_fd_pr__nfet_01v8__vsat_diff_10" FLOAT DOUBLE
"sky130_fd_pr__nfet_01v8__kt1_diff_10" FLOAT DOUBLE
"sky130_fd_pr__nfet_01v8__vth0_diff_10" FLOAT DOUBLE
"sky130_fd_pr__nfet_01v8__pdits_diff_10" FLOAT DOUBLE
"sky130_fd_pr__nfet_01v8__b0_diff_10" FLOAT DOUBLE
"sky130_fd_pr__nfet_01v8__voff_diff_10" FLOAT DOUBLE
"sky130_fd_pr__nfet_01v8__b1_diff_10" FLOAT DOUBLE
"sky130_fd_pr__nfet_01v8__pditsd_diff_10" FLOAT DOUBLE
"sky130_fd_pr__nfet_01v8__pclm_diff_10" FLOAT DOUBLE
"sky130_fd_pr__nfet_01v8__nfactor_diff_10" FLOAT DOUBLE
"sky130_fd_pr__nfet_01v8__u0_diff_10" FLOAT DOUBLE
"sky130_fd_pr__nfet_01v8__pclm_diff_11" FLOAT DOUBLE
"sky130_fd_pr__nfet_01v8__nfactor_diff_11" FLOAT DOUBLE
"sky130_fd_pr__nfet_01v8__u0_diff_11" FLOAT DOUBLE
"sky130_fd_pr__nfet_01v8__ags_diff_11" FLOAT DOUBLE
"sky130_fd_pr__nfet_01v8__keta_diff_11" FLOAT DOUBLE
"sky130_fd_pr__nfet_01v8__k2_diff_11" FLOAT DOUBLE
"sky130_fd_pr__nfet_01v8__ua_diff_11" FLOAT DOUBLE
"sky130_fd_pr__nfet_01v8__eta0_diff_11" FLOAT DOUBLE
"sky130_fd_pr__nfet_01v8__ub_diff_11" FLOAT DOUBLE
"sky130_fd_pr__nfet_01v8__tvoff_diff_11" FLOAT DOUBLE
"sky130_fd_pr__nfet_01v8__a0_diff_11" FLOAT DOUBLE
"sky130_fd_pr__nfet_01v8__rdsw_diff_11" FLOAT DOUBLE
"sky130_fd_pr__nfet_01v8__vsat_diff_11" FLOAT DOUBLE
"sky130_fd_pr__nfet_01v8__kt1_diff_11" FLOAT DOUBLE
"sky130_fd_pr__nfet_01v8__vth0_diff_11" FLOAT DOUBLE
"sky130_fd_pr__nfet_01v8__pdits_diff_11" FLOAT DOUBLE
"sky130_fd_pr__nfet_01v8__b0_diff_11" FLOAT DOUBLE
"sky130_fd_pr__nfet_01v8__voff_diff_11" FLOAT DOUBLE
"sky130_fd_pr__nfet_01v8__b1_diff_11" FLOAT DOUBLE
"sky130_fd_pr__nfet_01v8__pditsd_diff_11" FLOAT DOUBLE
"sky130_fd_pr__nfet_01v8__pditsd_diff_12" FLOAT DOUBLE
"sky130_fd_pr__nfet_01v8__pclm_diff_12" FLOAT DOUBLE
"sky130_fd_pr__nfet_01v8__nfactor_diff_12" FLOAT DOUBLE
"sky130_fd_pr__nfet_01v8__u0_diff_12" FLOAT DOUBLE
"sky130_fd_pr__nfet_01v8__ags_diff_12" FLOAT DOUBLE
"sky130_fd_pr__nfet_01v8__keta_diff_12" FLOAT DOUBLE
"sky130_fd_pr__nfet_01v8__k2_diff_12" FLOAT DOUBLE
"sky130_fd_pr__nfet_01v8__ua_diff_12" FLOAT DOUBLE
"sky130_fd_pr__nfet_01v8__eta0_diff_12" FLOAT DOUBLE
"sky130_fd_pr__nfet_01v8__ub_diff_12" FLOAT DOUBLE
"sky130_fd_pr__nfet_01v8__tvoff_diff_12" FLOAT DOUBLE
"sky130_fd_pr__nfet_01v8__a0_diff_12" FLOAT DOUBLE
"sky130_fd_pr__nfet_01v8__rdsw_diff_12" FLOAT DOUBLE
"sky130_fd_pr__nfet_01v8__vsat_diff_12" FLOAT DOUBLE
"sky130_fd_pr__nfet_01v8__kt1_diff_12" FLOAT DOUBLE
"sky130_fd_pr__nfet_01v8__vth0_diff_12" FLOAT DOUBLE
"sky130_fd_pr__nfet_01v8__pdits_diff_12" FLOAT DOUBLE
"sky130_fd_pr__nfet_01v8__b0_diff_12" FLOAT DOUBLE
"sky130_fd_pr__nfet_01v8__voff_diff_12" FLOAT DOUBLE
"sky130_fd_pr__nfet_01v8__b1_diff_12" FLOAT DOUBLE
"sky130_fd_pr__nfet_01v8__pdits_diff_13" FLOAT DOUBLE
"sky130_fd_pr__nfet_01v8__voff_diff_13" FLOAT DOUBLE
"sky130_fd_pr__nfet_01v8__b1_diff_13" FLOAT DOUBLE
"sky130_fd_pr__nfet_01v8__pditsd_diff_13" FLOAT DOUBLE
"sky130_fd_pr__nfet_01v8__pclm_diff_13" FLOAT DOUBLE
"sky130_fd_pr__nfet_01v8__nfactor_diff_13" FLOAT DOUBLE
"sky130_fd_pr__nfet_01v8__u0_diff_13" FLOAT DOUBLE
"sky130_fd_pr__nfet_01v8__ags_diff_13" FLOAT DOUBLE
"sky130_fd_pr__nfet_01v8__keta_diff_13" FLOAT DOUBLE
"sky130_fd_pr__nfet_01v8__k2_diff_13" FLOAT DOUBLE
"sky130_fd_pr__nfet_01v8__ua_diff_13" FLOAT DOUBLE
"sky130_fd_pr__nfet_01v8__eta0_diff_13" FLOAT DOUBLE
"sky130_fd_pr__nfet_01v8__ub_diff_13" FLOAT DOUBLE
"sky130_fd_pr__nfet_01v8__tvoff_diff_13" FLOAT DOUBLE
"sky130_fd_pr__nfet_01v8__a0_diff_13" FLOAT DOUBLE
"sky130_fd_pr__nfet_01v8__rdsw_diff_13" FLOAT DOUBLE
"sky130_fd_pr__nfet_01v8__vsat_diff_13" FLOAT DOUBLE
"sky130_fd_pr__nfet_01v8__kt1_diff_13" FLOAT DOUBLE
"sky130_fd_pr__nfet_01v8__vth0_diff_13" FLOAT DOUBLE
"sky130_fd_pr__nfet_01v8__b0_diff_13" FLOAT DOUBLE
"sky130_fd_pr__nfet_01v8__b0_diff_14" FLOAT DOUBLE
"sky130_fd_pr__nfet_01v8__pdits_diff_14" FLOAT DOUBLE
"sky130_fd_pr__nfet_01v8__voff_diff_14" FLOAT DOUBLE
"sky130_fd_pr__nfet_01v8__b1_diff_14" FLOAT DOUBLE
"sky130_fd_pr__nfet_01v8__pditsd_diff_14" FLOAT DOUBLE
"sky130_fd_pr__nfet_01v8__pclm_diff_14" FLOAT DOUBLE
"sky130_fd_pr__nfet_01v8__nfactor_diff_14" FLOAT DOUBLE
"sky130_fd_pr__nfet_01v8__u0_diff_14" FLOAT DOUBLE
"sky130_fd_pr__nfet_01v8__ags_diff_14" FLOAT DOUBLE
"sky130_fd_pr__nfet_01v8__keta_diff_14" FLOAT DOUBLE
"sky130_fd_pr__nfet_01v8__k2_diff_14" FLOAT DOUBLE
"sky130_fd_pr__nfet_01v8__ua_diff_14" FLOAT DOUBLE
"sky130_fd_pr__nfet_01v8__eta0_diff_14" FLOAT DOUBLE
"sky130_fd_pr__nfet_01v8__ub_diff_14" FLOAT DOUBLE
"sky130_fd_pr__nfet_01v8__tvoff_diff_14" FLOAT DOUBLE
"sky130_fd_pr__nfet_01v8__a0_diff_14" FLOAT DOUBLE
"sky130_fd_pr__nfet_01v8__rdsw_diff_14" FLOAT DOUBLE
"sky130_fd_pr__nfet_01v8__vsat_diff_14" FLOAT DOUBLE
"sky130_fd_pr__nfet_01v8__kt1_diff_14" FLOAT DOUBLE
"sky130_fd_pr__nfet_01v8__vth0_diff_14" FLOAT DOUBLE
"sky130_fd_pr__nfet_01v8__kt1_diff_15" FLOAT DOUBLE
"sky130_fd_pr__nfet_01v8__vsat_diff_15" FLOAT DOUBLE
"sky130_fd_pr__nfet_01v8__vth0_diff_15" FLOAT DOUBLE
"sky130_fd_pr__nfet_01v8__b0_diff_15" FLOAT DOUBLE
"sky130_fd_pr__nfet_01v8__pdits_diff_15" FLOAT DOUBLE
"sky130_fd_pr__nfet_01v8__voff_diff_15" FLOAT DOUBLE
"sky130_fd_pr__nfet_01v8__b1_diff_15" FLOAT DOUBLE
"sky130_fd_pr__nfet_01v8__pditsd_diff_15" FLOAT DOUBLE
"sky130_fd_pr__nfet_01v8__pclm_diff_15" FLOAT DOUBLE
"sky130_fd_pr__nfet_01v8__nfactor_diff_15" FLOAT DOUBLE
"sky130_fd_pr__nfet_01v8__u0_diff_15" FLOAT DOUBLE
"sky130_fd_pr__nfet_01v8__ags_diff_15" FLOAT DOUBLE
"sky130_fd_pr__nfet_01v8__keta_diff_15" FLOAT DOUBLE
"sky130_fd_pr__nfet_01v8__k2_diff_15" FLOAT DOUBLE
"sky130_fd_pr__nfet_01v8__ua_diff_15" FLOAT DOUBLE
"sky130_fd_pr__nfet_01v8__eta0_diff_15" FLOAT DOUBLE
"sky130_fd_pr__nfet_01v8__ub_diff_15" FLOAT DOUBLE
"sky130_fd_pr__nfet_01v8__tvoff_diff_15" FLOAT DOUBLE
"sky130_fd_pr__nfet_01v8__a0_diff_15" FLOAT DOUBLE
"sky130_fd_pr__nfet_01v8__rdsw_diff_15" FLOAT DOUBLE
"sky130_fd_pr__nfet_01v8__a0_diff_16" FLOAT DOUBLE
"sky130_fd_pr__nfet_01v8__rdsw_diff_16" FLOAT DOUBLE
"sky130_fd_pr__nfet_01v8__kt1_diff_16" FLOAT DOUBLE
"sky130_fd_pr__nfet_01v8__vsat_diff_16" FLOAT DOUBLE
"sky130_fd_pr__nfet_01v8__vth0_diff_16" FLOAT DOUBLE
"sky130_fd_pr__nfet_01v8__b0_diff_16" FLOAT DOUBLE
"sky130_fd_pr__nfet_01v8__pdits_diff_16" FLOAT DOUBLE
"sky130_fd_pr__nfet_01v8__voff_diff_16" FLOAT DOUBLE
"sky130_fd_pr__nfet_01v8__b1_diff_16" FLOAT DOUBLE
"sky130_fd_pr__nfet_01v8__pditsd_diff_16" FLOAT DOUBLE
"sky130_fd_pr__nfet_01v8__pclm_diff_16" FLOAT DOUBLE
"sky130_fd_pr__nfet_01v8__nfactor_diff_16" FLOAT DOUBLE
"sky130_fd_pr__nfet_01v8__u0_diff_16" FLOAT DOUBLE
"sky130_fd_pr__nfet_01v8__ags_diff_16" FLOAT DOUBLE
"sky130_fd_pr__nfet_01v8__keta_diff_16" FLOAT DOUBLE
"sky130_fd_pr__nfet_01v8__k2_diff_16" FLOAT DOUBLE
"sky130_fd_pr__nfet_01v8__ua_diff_16" FLOAT DOUBLE
"sky130_fd_pr__nfet_01v8__eta0_diff_16" FLOAT DOUBLE
"sky130_fd_pr__nfet_01v8__ub_diff_16" FLOAT DOUBLE
"sky130_fd_pr__nfet_01v8__tvoff_diff_16" FLOAT DOUBLE
"sky130_fd_pr__nfet_01v8__tvoff_diff_17" FLOAT DOUBLE
"sky130_fd_pr__nfet_01v8__a0_diff_17" FLOAT DOUBLE
"sky130_fd_pr__nfet_01v8__rdsw_diff_17" FLOAT DOUBLE
"sky130_fd_pr__nfet_01v8__kt1_diff_17" FLOAT DOUBLE
"sky130_fd_pr__nfet_01v8__vsat_diff_17" FLOAT DOUBLE
"sky130_fd_pr__nfet_01v8__vth0_diff_17" FLOAT DOUBLE
"sky130_fd_pr__nfet_01v8__pdits_diff_17" FLOAT DOUBLE
"sky130_fd_pr__nfet_01v8__voff_diff_17" FLOAT DOUBLE
"sky130_fd_pr__nfet_01v8__b0_diff_17" FLOAT DOUBLE
"sky130_fd_pr__nfet_01v8__b1_diff_17" FLOAT DOUBLE
"sky130_fd_pr__nfet_01v8__pditsd_diff_17" FLOAT DOUBLE
"sky130_fd_pr__nfet_01v8__pclm_diff_17" FLOAT DOUBLE
"sky130_fd_pr__nfet_01v8__nfactor_diff_17" FLOAT DOUBLE
"sky130_fd_pr__nfet_01v8__u0_diff_17" FLOAT DOUBLE
"sky130_fd_pr__nfet_01v8__ags_diff_17" FLOAT DOUBLE
"sky130_fd_pr__nfet_01v8__keta_diff_17" FLOAT DOUBLE
"sky130_fd_pr__nfet_01v8__k2_diff_17" FLOAT DOUBLE
"sky130_fd_pr__nfet_01v8__ua_diff_17" FLOAT DOUBLE
"sky130_fd_pr__nfet_01v8__eta0_diff_17" FLOAT DOUBLE
"sky130_fd_pr__nfet_01v8__ub_diff_17" FLOAT DOUBLE
"sky130_fd_pr__nfet_01v8__ub_diff_18" FLOAT DOUBLE
"sky130_fd_pr__nfet_01v8__tvoff_diff_18" FLOAT DOUBLE
"sky130_fd_pr__nfet_01v8__a0_diff_18" FLOAT DOUBLE
"sky130_fd_pr__nfet_01v8__rdsw_diff_18" FLOAT DOUBLE
"sky130_fd_pr__nfet_01v8__kt1_diff_18" FLOAT DOUBLE
"sky130_fd_pr__nfet_01v8__vsat_diff_18" FLOAT DOUBLE
"sky130_fd_pr__nfet_01v8__vth0_diff_18" FLOAT DOUBLE
"sky130_fd_pr__nfet_01v8__pdits_diff_18" FLOAT DOUBLE
"sky130_fd_pr__nfet_01v8__voff_diff_18" FLOAT DOUBLE
"sky130_fd_pr__nfet_01v8__b0_diff_18" FLOAT DOUBLE
"sky130_fd_pr__nfet_01v8__b1_diff_18" FLOAT DOUBLE
"sky130_fd_pr__nfet_01v8__pditsd_diff_18" FLOAT DOUBLE
"sky130_fd_pr__nfet_01v8__pclm_diff_18" FLOAT DOUBLE
"sky130_fd_pr__nfet_01v8__nfactor_diff_18" FLOAT DOUBLE
"sky130_fd_pr__nfet_01v8__u0_diff_18" FLOAT DOUBLE
"sky130_fd_pr__nfet_01v8__ags_diff_18" FLOAT DOUBLE
"sky130_fd_pr__nfet_01v8__keta_diff_18" FLOAT DOUBLE
"sky130_fd_pr__nfet_01v8__k2_diff_18" FLOAT DOUBLE
"sky130_fd_pr__nfet_01v8__ua_diff_18" FLOAT DOUBLE
"sky130_fd_pr__nfet_01v8__eta0_diff_18" FLOAT DOUBLE
"sky130_fd_pr__nfet_01v8__eta0_diff_19" FLOAT DOUBLE
"sky130_fd_pr__nfet_01v8__ua_diff_19" FLOAT DOUBLE
"sky130_fd_pr__nfet_01v8__ub_diff_19" FLOAT DOUBLE
"sky130_fd_pr__nfet_01v8__tvoff_diff_19" FLOAT DOUBLE
"sky130_fd_pr__nfet_01v8__a0_diff_19" FLOAT DOUBLE
"sky130_fd_pr__nfet_01v8__rdsw_diff_19" FLOAT DOUBLE
"sky130_fd_pr__nfet_01v8__kt1_diff_19" FLOAT DOUBLE
"sky130_fd_pr__nfet_01v8__vsat_diff_19" FLOAT DOUBLE
"sky130_fd_pr__nfet_01v8__vth0_diff_19" FLOAT DOUBLE
"sky130_fd_pr__nfet_01v8__pdits_diff_19" FLOAT DOUBLE
"sky130_fd_pr__nfet_01v8__voff_diff_19" FLOAT DOUBLE
"sky130_fd_pr__nfet_01v8__b0_diff_19" FLOAT DOUBLE
"sky130_fd_pr__nfet_01v8__b1_diff_19" FLOAT DOUBLE
"sky130_fd_pr__nfet_01v8__pditsd_diff_19" FLOAT DOUBLE
"sky130_fd_pr__nfet_01v8__pclm_diff_19" FLOAT DOUBLE
"sky130_fd_pr__nfet_01v8__nfactor_diff_19" FLOAT DOUBLE
"sky130_fd_pr__nfet_01v8__u0_diff_19" FLOAT DOUBLE
"sky130_fd_pr__nfet_01v8__ags_diff_19" FLOAT DOUBLE
"sky130_fd_pr__nfet_01v8__keta_diff_19" FLOAT DOUBLE
"sky130_fd_pr__nfet_01v8__k2_diff_19" FLOAT DOUBLE
"sky130_fd_pr__nfet_01v8__ua_diff_20" FLOAT DOUBLE
"sky130_fd_pr__nfet_01v8__eta0_diff_20" FLOAT DOUBLE
"sky130_fd_pr__nfet_01v8__ub_diff_20" FLOAT DOUBLE
"sky130_fd_pr__nfet_01v8__tvoff_diff_20" FLOAT DOUBLE
"sky130_fd_pr__nfet_01v8__a0_diff_20" FLOAT DOUBLE
"sky130_fd_pr__nfet_01v8__rdsw_diff_20" FLOAT DOUBLE
"sky130_fd_pr__nfet_01v8__vsat_diff_20" FLOAT DOUBLE
"sky130_fd_pr__nfet_01v8__kt1_diff_20" FLOAT DOUBLE
"sky130_fd_pr__nfet_01v8__vth0_diff_20" FLOAT DOUBLE
"sky130_fd_pr__nfet_01v8__pdits_diff_20" FLOAT DOUBLE
"sky130_fd_pr__nfet_01v8__b0_diff_20" FLOAT DOUBLE
"sky130_fd_pr__nfet_01v8__voff_diff_20" FLOAT DOUBLE
"sky130_fd_pr__nfet_01v8__b1_diff_20" FLOAT DOUBLE
"sky130_fd_pr__nfet_01v8__pditsd_diff_20" FLOAT DOUBLE
"sky130_fd_pr__nfet_01v8__pclm_diff_20" FLOAT DOUBLE
"sky130_fd_pr__nfet_01v8__nfactor_diff_20" FLOAT DOUBLE
"sky130_fd_pr__nfet_01v8__u0_diff_20" FLOAT DOUBLE
"sky130_fd_pr__nfet_01v8__ags_diff_20" FLOAT DOUBLE
"sky130_fd_pr__nfet_01v8__keta_diff_20" FLOAT DOUBLE
"sky130_fd_pr__nfet_01v8__k2_diff_20" FLOAT DOUBLE
"sky130_fd_pr__nfet_01v8__ags_diff_21" FLOAT DOUBLE
"sky130_fd_pr__nfet_01v8__keta_diff_21" FLOAT DOUBLE
"sky130_fd_pr__nfet_01v8__k2_diff_21" FLOAT DOUBLE
"sky130_fd_pr__nfet_01v8__ua_diff_21" FLOAT DOUBLE
"sky130_fd_pr__nfet_01v8__eta0_diff_21" FLOAT DOUBLE
"sky130_fd_pr__nfet_01v8__ub_diff_21" FLOAT DOUBLE
"sky130_fd_pr__nfet_01v8__tvoff_diff_21" FLOAT DOUBLE
"sky130_fd_pr__nfet_01v8__a0_diff_21" FLOAT DOUBLE
"sky130_fd_pr__nfet_01v8__rdsw_diff_21" FLOAT DOUBLE
"sky130_fd_pr__nfet_01v8__vsat_diff_21" FLOAT DOUBLE
"sky130_fd_pr__nfet_01v8__kt1_diff_21" FLOAT DOUBLE
"sky130_fd_pr__nfet_01v8__vth0_diff_21" FLOAT DOUBLE
"sky130_fd_pr__nfet_01v8__pdits_diff_21" FLOAT DOUBLE
"sky130_fd_pr__nfet_01v8__b0_diff_21" FLOAT DOUBLE
"sky130_fd_pr__nfet_01v8__voff_diff_21" FLOAT DOUBLE
"sky130_fd_pr__nfet_01v8__b1_diff_21" FLOAT DOUBLE
"sky130_fd_pr__nfet_01v8__pditsd_diff_21" FLOAT DOUBLE
"sky130_fd_pr__nfet_01v8__pclm_diff_21" FLOAT DOUBLE
"sky130_fd_pr__nfet_01v8__nfactor_diff_21" FLOAT DOUBLE
"sky130_fd_pr__nfet_01v8__u0_diff_21" FLOAT DOUBLE
"sky130_fd_pr__nfet_01v8__pclm_diff_22" FLOAT DOUBLE
"sky130_fd_pr__nfet_01v8__nfactor_diff_22" FLOAT DOUBLE
"sky130_fd_pr__nfet_01v8__u0_diff_22" FLOAT DOUBLE
"sky130_fd_pr__nfet_01v8__ags_diff_22" FLOAT DOUBLE
"sky130_fd_pr__nfet_01v8__keta_diff_22" FLOAT DOUBLE
"sky130_fd_pr__nfet_01v8__k2_diff_22" FLOAT DOUBLE
"sky130_fd_pr__nfet_01v8__ua_diff_22" FLOAT DOUBLE
"sky130_fd_pr__nfet_01v8__eta0_diff_22" FLOAT DOUBLE
"sky130_fd_pr__nfet_01v8__ub_diff_22" FLOAT DOUBLE
"sky130_fd_pr__nfet_01v8__tvoff_diff_22" FLOAT DOUBLE
"sky130_fd_pr__nfet_01v8__a0_diff_22" FLOAT DOUBLE
"sky130_fd_pr__nfet_01v8__rdsw_diff_22" FLOAT DOUBLE
"sky130_fd_pr__nfet_01v8__vsat_diff_22" FLOAT DOUBLE
"sky130_fd_pr__nfet_01v8__kt1_diff_22" FLOAT DOUBLE
"sky130_fd_pr__nfet_01v8__vth0_diff_22" FLOAT DOUBLE
"sky130_fd_pr__nfet_01v8__pdits_diff_22" FLOAT DOUBLE
"sky130_fd_pr__nfet_01v8__b0_diff_22" FLOAT DOUBLE
"sky130_fd_pr__nfet_01v8__voff_diff_22" FLOAT DOUBLE
"sky130_fd_pr__nfet_01v8__b1_diff_22" FLOAT DOUBLE
"sky130_fd_pr__nfet_01v8__pditsd_diff_22" FLOAT DOUBLE
"sky130_fd_pr__nfet_01v8__pditsd_diff_23" FLOAT DOUBLE
"sky130_fd_pr__nfet_01v8__pclm_diff_23" FLOAT DOUBLE
"sky130_fd_pr__nfet_01v8__nfactor_diff_23" FLOAT DOUBLE
"sky130_fd_pr__nfet_01v8__u0_diff_23" FLOAT DOUBLE
"sky130_fd_pr__nfet_01v8__ags_diff_23" FLOAT DOUBLE
"sky130_fd_pr__nfet_01v8__keta_diff_23" FLOAT DOUBLE
"sky130_fd_pr__nfet_01v8__k2_diff_23" FLOAT DOUBLE
"sky130_fd_pr__nfet_01v8__ua_diff_23" FLOAT DOUBLE
"sky130_fd_pr__nfet_01v8__eta0_diff_23" FLOAT DOUBLE
"sky130_fd_pr__nfet_01v8__ub_diff_23" FLOAT DOUBLE
"sky130_fd_pr__nfet_01v8__tvoff_diff_23" FLOAT DOUBLE
"sky130_fd_pr__nfet_01v8__a0_diff_23" FLOAT DOUBLE
"sky130_fd_pr__nfet_01v8__rdsw_diff_23" FLOAT DOUBLE
"sky130_fd_pr__nfet_01v8__vsat_diff_23" FLOAT DOUBLE
"sky130_fd_pr__nfet_01v8__kt1_diff_23" FLOAT DOUBLE
"sky130_fd_pr__nfet_01v8__vth0_diff_23" FLOAT DOUBLE
"sky130_fd_pr__nfet_01v8__pdits_diff_23" FLOAT DOUBLE
"sky130_fd_pr__nfet_01v8__b0_diff_23" FLOAT DOUBLE
"sky130_fd_pr__nfet_01v8__voff_diff_23" FLOAT DOUBLE
"sky130_fd_pr__nfet_01v8__b1_diff_23" FLOAT DOUBLE
"sky130_fd_pr__nfet_01v8__pdits_diff_24" FLOAT DOUBLE
"sky130_fd_pr__nfet_01v8__voff_diff_24" FLOAT DOUBLE
"sky130_fd_pr__nfet_01v8__b1_diff_24" FLOAT DOUBLE
"sky130_fd_pr__nfet_01v8__pditsd_diff_24" FLOAT DOUBLE
"sky130_fd_pr__nfet_01v8__pclm_diff_24" FLOAT DOUBLE
"sky130_fd_pr__nfet_01v8__nfactor_diff_24" FLOAT DOUBLE
"sky130_fd_pr__nfet_01v8__u0_diff_24" FLOAT DOUBLE
"sky130_fd_pr__nfet_01v8__ags_diff_24" FLOAT DOUBLE
"sky130_fd_pr__nfet_01v8__keta_diff_24" FLOAT DOUBLE
"sky130_fd_pr__nfet_01v8__k2_diff_24" FLOAT DOUBLE
"sky130_fd_pr__nfet_01v8__ua_diff_24" FLOAT DOUBLE
"sky130_fd_pr__nfet_01v8__eta0_diff_24" FLOAT DOUBLE
"sky130_fd_pr__nfet_01v8__ub_diff_24" FLOAT DOUBLE
"sky130_fd_pr__nfet_01v8__tvoff_diff_24" FLOAT DOUBLE
"sky130_fd_pr__nfet_01v8__a0_diff_24" FLOAT DOUBLE
"sky130_fd_pr__nfet_01v8__rdsw_diff_24" FLOAT DOUBLE
"sky130_fd_pr__nfet_01v8__vsat_diff_24" FLOAT DOUBLE
"sky130_fd_pr__nfet_01v8__kt1_diff_24" FLOAT DOUBLE
"sky130_fd_pr__nfet_01v8__vth0_diff_24" FLOAT DOUBLE
"sky130_fd_pr__nfet_01v8__b0_diff_24" FLOAT DOUBLE
"sky130_fd_pr__nfet_01v8__b0_diff_25" FLOAT DOUBLE
"sky130_fd_pr__nfet_01v8__pdits_diff_25" FLOAT DOUBLE
"sky130_fd_pr__nfet_01v8__voff_diff_25" FLOAT DOUBLE
"sky130_fd_pr__nfet_01v8__b1_diff_25" FLOAT DOUBLE
"sky130_fd_pr__nfet_01v8__pditsd_diff_25" FLOAT DOUBLE
"sky130_fd_pr__nfet_01v8__pclm_diff_25" FLOAT DOUBLE
"sky130_fd_pr__nfet_01v8__nfactor_diff_25" FLOAT DOUBLE
"sky130_fd_pr__nfet_01v8__u0_diff_25" FLOAT DOUBLE
"sky130_fd_pr__nfet_01v8__ags_diff_25" FLOAT DOUBLE
"sky130_fd_pr__nfet_01v8__keta_diff_25" FLOAT DOUBLE
"sky130_fd_pr__nfet_01v8__k2_diff_25" FLOAT DOUBLE
"sky130_fd_pr__nfet_01v8__ua_diff_25" FLOAT DOUBLE
"sky130_fd_pr__nfet_01v8__eta0_diff_25" FLOAT DOUBLE
"sky130_fd_pr__nfet_01v8__ub_diff_25" FLOAT DOUBLE
"sky130_fd_pr__nfet_01v8__tvoff_diff_25" FLOAT DOUBLE
"sky130_fd_pr__nfet_01v8__a0_diff_25" FLOAT DOUBLE
"sky130_fd_pr__nfet_01v8__rdsw_diff_25" FLOAT DOUBLE
"sky130_fd_pr__nfet_01v8__vsat_diff_25" FLOAT DOUBLE
"sky130_fd_pr__nfet_01v8__kt1_diff_25" FLOAT DOUBLE
"sky130_fd_pr__nfet_01v8__vth0_diff_25" FLOAT DOUBLE
"sky130_fd_pr__nfet_01v8__kt1_diff_26" FLOAT DOUBLE
"sky130_fd_pr__nfet_01v8__vsat_diff_26" FLOAT DOUBLE
"sky130_fd_pr__nfet_01v8__vth0_diff_26" FLOAT DOUBLE
"sky130_fd_pr__nfet_01v8__b0_diff_26" FLOAT DOUBLE
"sky130_fd_pr__nfet_01v8__pdits_diff_26" FLOAT DOUBLE
"sky130_fd_pr__nfet_01v8__voff_diff_26" FLOAT DOUBLE
"sky130_fd_pr__nfet_01v8__b1_diff_26" FLOAT DOUBLE
"sky130_fd_pr__nfet_01v8__pditsd_diff_26" FLOAT DOUBLE
"sky130_fd_pr__nfet_01v8__pclm_diff_26" FLOAT DOUBLE
"sky130_fd_pr__nfet_01v8__nfactor_diff_26" FLOAT DOUBLE
"sky130_fd_pr__nfet_01v8__u0_diff_26" FLOAT DOUBLE
"sky130_fd_pr__nfet_01v8__ags_diff_26" FLOAT DOUBLE
"sky130_fd_pr__nfet_01v8__keta_diff_26" FLOAT DOUBLE
"sky130_fd_pr__nfet_01v8__k2_diff_26" FLOAT DOUBLE
"sky130_fd_pr__nfet_01v8__ua_diff_26" FLOAT DOUBLE
"sky130_fd_pr__nfet_01v8__eta0_diff_26" FLOAT DOUBLE
"sky130_fd_pr__nfet_01v8__ub_diff_26" FLOAT DOUBLE
"sky130_fd_pr__nfet_01v8__tvoff_diff_26" FLOAT DOUBLE
"sky130_fd_pr__nfet_01v8__a0_diff_26" FLOAT DOUBLE
"sky130_fd_pr__nfet_01v8__rdsw_diff_26" FLOAT DOUBLE
"sky130_fd_pr__nfet_01v8__a0_diff_27" FLOAT DOUBLE
"sky130_fd_pr__nfet_01v8__rdsw_diff_27" FLOAT DOUBLE
"sky130_fd_pr__nfet_01v8__kt1_diff_27" FLOAT DOUBLE
"sky130_fd_pr__nfet_01v8__vsat_diff_27" FLOAT DOUBLE
"sky130_fd_pr__nfet_01v8__vth0_diff_27" FLOAT DOUBLE
"sky130_fd_pr__nfet_01v8__b0_diff_27" FLOAT DOUBLE
"sky130_fd_pr__nfet_01v8__pdits_diff_27" FLOAT DOUBLE
"sky130_fd_pr__nfet_01v8__voff_diff_27" FLOAT DOUBLE
"sky130_fd_pr__nfet_01v8__b1_diff_27" FLOAT DOUBLE
"sky130_fd_pr__nfet_01v8__pditsd_diff_27" FLOAT DOUBLE
"sky130_fd_pr__nfet_01v8__pclm_diff_27" FLOAT DOUBLE
"sky130_fd_pr__nfet_01v8__nfactor_diff_27" FLOAT DOUBLE
"sky130_fd_pr__nfet_01v8__u0_diff_27" FLOAT DOUBLE
"sky130_fd_pr__nfet_01v8__ags_diff_27" FLOAT DOUBLE
"sky130_fd_pr__nfet_01v8__keta_diff_27" FLOAT DOUBLE
"sky130_fd_pr__nfet_01v8__k2_diff_27" FLOAT DOUBLE
"sky130_fd_pr__nfet_01v8__ua_diff_27" FLOAT DOUBLE
"sky130_fd_pr__nfet_01v8__eta0_diff_27" FLOAT DOUBLE
"sky130_fd_pr__nfet_01v8__ub_diff_27" FLOAT DOUBLE