HEADER
"PSFversion" "1.00"
"design" "(\"EE_140_240A_Final_Project\" \"Final-BGR\" \"schematic\" \"\")"
"simulator" "spectre"
"temperature" "27"
"host" ""
"date" "May  7 02:59:18 2025"
"title" ""
"analysisList" "()"
END
