HEADER
"PSFversion" "1.00"
"Time Stamp" "May  7 02:59:18 2025"
TYPE
"variable" STRUCT(
"value" FLOAT DOUBLE
) PROP( "key" "element" )
VALUE
"VBAT" "variable" ( 3.2 ) PROP( )
"TRISE_BAT" "variable" ( 100e-9 ) PROP( )
"temp" "variable" ( 27 ) PROP( )
END
