HEADER
"PSFversion" "1.00"
"E0n" "analogLib_vcvs_spectre"
"VBATv" ":1v"
"VDDAv" ":2v"
"VREFv" ":3v"
"VSSv" ":4v"
