HEADER
"PSFversion" "1.00"
"X_ADCn" "ADC_mockup"
"X_PGAn" "PGA_mockup"
"X_MUXn" "mux_mockup"
"X_BGRn" "BGR_mockup"
"X_AREGn" "AREG_mockup"
"X_DREGn" "DREG_mockup"
"X_DIV4n" "VBATDIV4_mockup"
"CLK_ADCv" ":1v"
"CLK_PGA1v" ":2v"
"CLK_PGA2v" ":3v"
"COMPv" ":4v"
"D<7>v" ":5v"
"D<6>v" ":6v"
"D<5>v" ":7v"
"D<4>v" ":8v"
"D<3>v" ":9v"
"D<2>v" ":10v"
"D<1>v" ":11v"
"D<0>v" ":12v"
"EXT_IN<0>v" ":13v"
"EXT_IN<1>v" ":14v"
"G<2>v" ":15v"
"G<1>v" ":16v"
"G<0>v" ":17v"
"S<1>v" ":18v"
"S<0>v" ":19v"
"VBATv" ":20v"
"VBATDIV4v" ":21v"
"VDDAv" ":22v"
"VDDDv" ":23v"
"VPTATv" ":24v"
"VSSv" ":25v"
