HEADER
"PSFversion" "1.00"
"C4n C7n C6n C8n C5n" "analogLib_cap_spectre"
"W9n W8n W7n W6n W5n W4n W3n W2n W1n W0n" "analogLib_switch_spectre"
"X_AMPn" "opamp_mockup"
"I5n I4n I3n" "AND2HDX0_dupe"
"I12n I11n I6n" "OR2HDX0_dupe"
"I13n I9n I10n" "invr_dupe"
"CLK1v" ":1v"
"CLK2v" ":2v"
"G<2>v" ":3v"
"G<1>v" ":4v"
"G<0>v" ":5v"
"VDDv" ":6v"
"VINv" ":7v"
"VOUTv" ":8v"
"VSSv" ":9v"
