HEADER
"PSFversion" "1.00"
"I36n I0n" "DFRRSHDX0_dupe"
"I28n I6n I4n I3n I2n" "mux2_mockup"
"I32n I25n I8n I7n" "mux_mockup"
"I38n I24n I23n I11n I10n I9n" "AND2HDX0_dupe"
"I17n I16n I15n I14n I13n I12n" "XNOR_gate"
"VDDv" ":1v"
"VSSv" ":2v"
"adc_convertv" ":3v"
"adc_donev" ":4v"
"adc_resetbv" ":5v"
"clkv" ":6v"
"clk_dffv" ":7v"
"clk_pgav" ":8v"
"run_conversionv" ":9v"
