HEADER
"PSFversion" "1.00"
"__NEXT_FILE__" "zz_EE140_Sp20_system"
