HEADER
"PSFversion" "1.00"
"E0n" "analogLib_vcvs_spectre"
"VBATv" ":1v"
"VBATDIV4v" ":2v"
"VSSv" ":3v"
