HEADER
"PSFversion" "1.00"
"design" "(\"ee140_gsi\" \"zz_EE140_Sp20_system\" \"schematic\" \"\")"
"simulator" "spectre"
"temperature" "27"
"host" ""
"date" "Apr 20 16:04:04 2025"
"title" ""
"analysisList" "()"
END
