HEADER
"PSFversion" "1.00"
"X_CAPDACn" "capdac_mockup"
"I6n" "opamp_mockup"
"I9n" "strongarm"
"CLKv" ":1v"
"COMP_OUTv" ":2v"
"D<7>v" ":3v"
"D<6>v" ":4v"
"D<5>v" ":5v"
"D<4>v" ":6v"
"D<3>v" ":7v"
"D<2>v" ":8v"
"D<1>v" ":9v"
"D<0>v" ":10v"
"VDDv" ":11v"
"VINv" ":12v"
"VREFv" ":13v"
"VSSv" ":14v"
"COMPAREv" ":15v"
"LOADv" ":16v"
