HEADER
"PSFversion" "1.00"
"E2n" "analogLib_vcvs_spectre"
"C1n C0n" "analogLib_cap_spectre"
"I2n" "Final_LDO_VDDDA"
"VBATv" ":1v"
"VDDAv" ":2v"
"VREFv" ":3v"
"VSSv" ":4v"
