HEADER
"PSFversion" "1.00"
"I4n" "final_project_schematics_5t_ota_schematic"
"Q1n Q0n" "sky130_fd_pr_main_npn_05v5_spectre"
"R4n R3n R2n R1n R0n" "analogLib_res_spectre"
"PM4n PM3n PM2n PM6n PM5n PM1n PM0n" "sky130_fd_pr_main_pfet_g5v0d10v5_spectre"
"NM1n NM0n NM2n" "sky130_fd_pr_main_nfet_g5v0d10v5_spectre"
"VBGv" ":1v"
"VDDv" ":2v"
"VPTAPv" ":3v"
"VSSv" ":4v"
