HEADER
"PSFversion" "1.00"
"V0n" "analogLib_vdc_spectre"
"C0n" "analogLib_cap_spectre"
"I9n" "_sub0"
"R1n R0n" "analogLib_res_spectre"
"VBATv" ":1v"
"VBGv" ":2v"
"VDDAv" ":3v"
"VPTATv" ":4v"
"VREF_ADCv" ":5v"
"VSSv" ":6v"
