HEADER
"PSFversion" "1.00"
"V0n" "analogLib_vdc_spectre"
"I9n" "_sub1"
"VBATv" ":1v"
"VBGv" ":2v"
"VDDAv" ":3v"
"VPTATv" ":4v"
"VREF_ADCv" ":5v"
"VSSv" ":6v"
