HEADER
"PSFversion" "1.00"
"PM1n PM0n" "sky130_fd_pr_main_pfet_01v8_lvt_spectre"
"NM1n NM0n" "sky130_fd_pr_main_nfet_01v8_lvt_spectre"
"buff_Voutv" ":1v"
"VDDv" ":2v"
"VSSv" ":3v"
"buff_Vinv" ":4v"
