HEADER
"PSFversion" "1.00"
"I8n" "Final_LDO"
"VBATv" ":1v"
"VDDDv" ":2v"
"VREFv" ":3v"
"VSSv" ":4v"
