HEADER
"PSFversion" "1.00"
"X_PGACLKGENn" "clk_nonoverlapping_schematic"
"I6n I5n" "invr_dupe_schematic"
"X_SARn" "SAR_DFF_schematic"
"X_FSMn" "SAR_FSM_HW_schematic"
"CLKv" ":1v"
"CLK_ADCv" ":2v"
"CLK_PGA1v" ":3v"
"CLK_PGA2v" ":4v"
"COMPv" ":5v"
"DAC<7>v" ":6v"
"DAC<6>v" ":7v"
"DAC<5>v" ":8v"
"DAC<4>v" ":9v"
"DAC<3>v" ":10v"
"DAC<2>v" ":11v"
"DAC<1>v" ":12v"
"DAC<0>v" ":13v"
"DONEv" ":14v"
"ENABLEv" ":15v"
"VDDv" ":16v"
"VSSv" ":17v"
