HEADER
"PSFversion" "1.00"
"X_STUDENTn" "EE_140_240A_Sp25_Student_Submission_schematic"
"V6n V4n V1n" "analogLib_vpulse_spectre"
"I22n" "analogLib_ipulse_spectre"
"E12n E11n E10n E9n E8n E7n E6n E5n E4n E2n E3n E0n E1n" "analogLib_vcvs_spectre"
"R0n" "analogLib_res_spectre"
"C0n" "analogLib_cap_spectre"
"V0n V2n" "analogLib_vsource_spectre"
"V5n" "analogLib_vdc_spectre"
"X_GSIn" "EE_140_240A_Sp25_DigitalTop_schematic"
