HEADER
"PSFversion" "1.00"
"NM2n NM1n NM0n" "sky130_fd_pr_main_nfet_g5v0d10v5_spectre"
"PM1n PM0n" "sky130_fd_pr_main_pfet_g5v0d10v5_spectre"
"V+v" ":1v"
"V-v" ":2v"
"VBNv" ":3v"
"VDDv" ":4v"
"VOUTv" ":5v"
"VSSv" ":6v"
