HEADER
"PSFversion" "1.00"
"I3n I2n I4n I5n I6n I7n" "mux_switches"
"I1n I0n" "invr_dupe"
"IN<3>v" ":1v"
"IN<2>v" ":2v"
"IN<1>v" ":3v"
"IN<0>v" ":4v"
"OUTv" ":5v"
"S<1>v" ":6v"
"S<0>v" ":7v"
"VDDv" ":8v"
"VSSv" ":9v"
