HEADER
"PSFversion" "1.00"
"MN1n MN2n" "PRIMLIB_ne_spectre"
"MP1n MP2n" "PRIMLIB_pe_spectre"
"Av" ":1v"
"Bv" ":2v"
"Qv" ":3v"
"VDDv" ":4v"
"VSSv" ":5v"
