HEADER
"PSFversion" "1.00"
"I1n" "invr_dupe_schematic"
"I0n" "nor2_dupe_schematic"
"Av" ":1v"
"Bv" ":2v"
"OUTv" ":3v"
"VDDv" ":4v"
"VSSv" ":5v"
