HEADER
"PSFversion" "1.00"
"C4n C7n C6n C8n C5n" "analogLib_cap_spectre"
"I30n I29n" "mux_switches"
"I5n I4n I3n" "AND2HDX0_dupe_schematic"
"I12n I11n I6n" "OR2HDX0_dupe_schematic"
"I13n I9n I10n" "invr_dupe_schematic"
"I18n" "final_project_schematics_2_stage_folded_schematic"
"I17n" "opamp_mockup_schematic"
"I25n I22n I26n I21n I24n I20n I23n I19n" "pga_switches"
"CLK1v" ":1v"
"CLK2v" ":2v"
"G<2>v" ":3v"
"G<1>v" ":4v"
"G<0>v" ":5v"
"VDDv" ":6v"
"VINv" ":7v"
"VOUTv" ":8v"
"VSSv" ":9v"
