HEADER
"PSFversion" "1.00"
"PM6n PM3n PM2n PM1n PM0n" "sky130_fd_pr_main_pfet_01v8_spectre"
"NM4n NM3n NM2n NM1n NM0n NM5n" "sky130_fd_pr_main_nfet_01v8_spectre"
"I3n I2n I1n I0n" "invr_dupe"
"CLKv" ":1v"
"VDACv" ":2v"
"VDDv" ":3v"
"VOUT_BIGGERv" ":4v"
"VOUT_SMALLERv" ":5v"
"VSSv" ":6v"
"V_REFv" ":7v"
