HEADER
"PSFversion" "1.00"
"NM3n NM2n NM1n NM0n" "sky130_fd_pr_main_nfet_01v8_spectre"
"PM3n PM2n PM1n PM0n" "sky130_fd_pr_main_pfet_01v8_spectre"
"Av" ":1v"
"Bv" ":2v"
"OUTv" ":3v"
"PHIAv" ":4v"
"PHIBv" ":5v"
"VDDv" ":6v"
"VSSv" ":7v"
