HEADER
"PSFversion" "1.00"
"__NEXT_FILE__" "EE_140_240A_Sp25_System"
