HEADER
"PSFversion" "1.00"
"R14n R5n R2n R1n R0n" "analogLib_res_spectre"
"NM14n NM2n NM7n NM1n NM3n NM4n NM5n NM0n" "sky130_fd_pr_main_nfet_g5v0d10v5_spectre"
"V0n" "analogLib_vdc_spectre"
"V2n" "analogLib_vpulse_spectre"
"C0n" "analogLib_cap_spectre"
"PM10n PM9n PM2n PM6n PM3n PM4n PM5n PM1n PM0n" "sky130_fd_pr_main_pfet_g5v0d10v5_spectre"
