HEADER
"PSFversion" "1.00"
"Cv" ":cv"
"Bv" ":bv"
"Ev" ":ev"
"BNv" "\:BNv"
