HEADER
"PSFversion" "1.00"
"design" "(\"EE_140_240A_Final_Project\" \"Final-BGR-adcref\" \"schematic\" \"\")"
"simulator" "spectre"
"temperature" "70.0"
"host" ""
"date" "May  6 20:05:02 2025"
"title" ""
"analysisList" "()"
END
