HEADER
"PSFversion" "1.00"
"Time Stamp" "May  6 20:05:02 2025"
TYPE
"variable" STRUCT(
"value" FLOAT DOUBLE
) PROP( "key" "element" )
VALUE
"TRISE_BAT" "variable" ( 100e-9 ) PROP( )
"VBAT" "variable" ( 3.6 ) PROP( )
"temp" "variable" ( 70.0 ) PROP( )
END
