HEADER
"PSFversion" "1.00"
"design" "(\"EE_140_240A_Final_Project\" \"aaa-Final_LDO_VDDDA\" \"schematic\" \"\")"
"simulator" "spectre"
"temperature" "27"
"host" ""
"date" "May  7 20:50:22 2025"
"title" ""
"analysisList" "()"
END
