HEADER
"PSFversion" "1.00"
"Time Stamp" "May  7 20:50:22 2025"
TYPE
"variable" STRUCT(
"value" FLOAT DOUBLE
) PROP( "key" "element" )
VALUE
"temp" "variable" ( 27 ) PROP( )
END
